5
Properties=species:S:1:pos:R:3:REF_hirsh_ratios:R:1:REF_forces:R:3 REF_dipole_total=0.0 REF_energy=-1101.49444 REF_dipole="-0.0 -0.0 -0.0" pbc="F F F"
C        1.02962800      -0.01615800      -0.09413100       0.71837000      -0.00003500       0.00000900       0.00003500
H        2.11008200      -0.01615900      -0.09413100       0.56194800       0.27620100      -0.00000000      -0.00000400
H        0.66947800       0.67553100      -0.84195400       0.56195000      -0.09205600       0.17683600      -0.19118000
H        0.66947500       0.28562900       0.87880000       0.56194600      -0.09205100       0.07714900       0.24870200
H        0.66947600      -1.00963400      -0.31924300       0.56195100      -0.09205900      -0.25399300      -0.05755300
50
Properties=species:S:1:pos:R:3:REF_hirsh_ratios:R:1:REF_forces:R:3 REF_dipole_total=0.846156 REF_energy=-32740.7861 REF_dipole="0.593713 -0.575661 -0.179162" pbc="F F F"
C       -1.81720000       2.90454700      -2.37644000       0.76141600      -0.27023900      -0.05095200       0.06540800
H       -0.83245200       3.08733400      -2.81593500       0.56885400      -0.11881800      -0.21886800       0.19698600
H       -2.56106000       2.78414800      -3.17368700       0.61441400       0.14250400       0.06357900       0.20525800
H       -2.10342100       3.75043000      -1.74173900       0.61632000       0.03279700      -0.16620200      -0.14274000
O       -1.72469100       1.71037200      -1.59584600       0.88705200      -0.72273700      -0.24265700       0.37469200
C       -2.88199600       1.36424900      -0.95497400       0.85054600      -1.52822700       0.72451100      -0.43273200
O       -3.94445300       1.98411200      -1.13287800       0.94705500       2.11497700      -1.25216500       0.41126400
N       -2.78900300       0.24322500      -0.16340000       0.88561700       0.59973700       0.10827100      -0.19068800
C       -1.55336900      -0.50826700       0.14611800       0.87333400       0.11885000       0.15527100      -0.25780600
C       -2.07701900      -1.59314900       1.07336800       0.83211800      -0.56971900       0.39892600      -0.06580300
C       -3.37845100      -1.43762300       1.32958800       0.80855000       0.71245900       0.31698400      -0.45183500
C       -3.94404900      -0.22853200       0.62897000       0.83424100      -0.25015300       0.29194200       0.02397700
C       -4.46695600       0.84467100       1.60187200       0.78256600       0.12986700      -0.28169200      -0.24075900
H       -5.29173600       0.45008700       2.19168700       0.59536800      -0.08509800      -0.08709200       0.03383600
H       -4.81432700       1.70780700       1.04052900       0.66616300      -0.02963000      -0.01886100      -0.02567600
H       -3.67828900       1.16517000       2.27845400       0.64908500       0.12312600      -0.02801100       0.04076100
H       -4.77449000      -0.51542200      -0.05081500       0.64813100       0.40626900       0.15416800       0.22846600
H       -3.96727900      -2.07384700       1.98153500       0.59240200       0.00127900       0.13689700      -0.12779100
H       -1.44210500      -2.37620400       1.47508100       0.66600300      -0.06132100       0.20374300      -0.08907200
C       -0.54087600       0.42311800       0.92127200       0.85584600       0.01978700       0.85775300       0.58176200
O       -0.73670800       1.63561800       1.02595600       0.93611600       0.30725800      -1.74548400      -0.10298900
N        0.51145100      -0.20601800       1.55152200       0.85828700      -0.30293100       0.40983900      -0.42153700
H        0.73637800      -1.16550200       1.29683400       0.72618900      -0.16323400       0.49827600       0.05125300
C        1.59304300       0.58581400       2.15552100       0.80553100      -0.13207900      -0.20153500      -0.30980000
C        2.68018000       0.91434700       1.13788600       0.85211100       0.68024600      -0.12808300      -0.03107300
N        3.87962800       0.31075200       1.29080200       0.91176000      -0.27479400       0.58241000      -0.58028300
C        4.84231000       0.57218800       0.38366700       0.81764700      -0.65732000       0.19322500       0.12567200
C        4.65349300       1.43002600      -0.70310700       0.80579000      -0.13788300      -0.13673600       0.25362000
C        3.41441600       2.05318100      -0.85562500       0.80301200       0.00696400      -0.26710800       0.34731200
C        2.41222400       1.79523300       0.07535400       0.82302900       0.34116800      -0.11193800       0.10448700
H        1.43451000       2.26154600      -0.00849900       0.68650600       0.11057100      -0.08621800       0.06212700
H        3.23457300       2.73115700      -1.68706500       0.58515200       0.02646800      -0.10434700       0.14396200
H        5.45745500       1.61110400      -1.41143200       0.59168500      -0.09198000      -0.05512700       0.13446200
H        5.80696600       0.07270700       0.52924000       0.60771500      -0.38163600       0.14249400       0.02748800
H        2.01594800       0.02381100       2.99826300       0.63663800      -0.01052800       0.11936500      -0.33740100
H        1.13902900       1.50610100       2.54359200       0.65759700       0.08700700      -0.21556600      -0.16410200
C       -0.92646900      -1.10343300      -1.18002000       0.82668500       0.15358300       0.11985000       0.44891700
C        0.33006900      -1.91246200      -0.97315600       0.85220000       0.09261300      -0.09747100      -0.08598900
C        0.26747300      -3.25039900      -0.55337000       0.82432300       0.36434900       0.24239700      -0.07484600
C        1.43722600      -3.98017100      -0.33969600       0.81430800       0.03209400       0.25030400      -0.04607900
C        2.68363900      -3.38557100      -0.54377300       0.81579800      -0.25689300       0.15255600      -0.05379500
C        2.75620000      -2.06096700      -0.97741000       0.82895400      -0.24901700      -0.12560400      -0.00395300
C        1.58819200      -1.33075000      -1.19440600       0.83811500      -0.10330700      -0.47720200       0.03993400
H        1.64789100      -0.29808900      -1.53031700       0.70162600      -0.01473000      -0.19616200       0.06527000
H        3.72264700      -1.59200500      -1.14283000       0.67218900      -0.17167700      -0.08506800       0.02501200
H        3.59334600      -3.95509700      -0.37325200       0.60274800      -0.13508300       0.08800200      -0.02226800
H        1.37457000      -5.01582800      -0.01525200       0.60083600       0.01822300       0.14470500      -0.05171000
H       -0.70103900      -3.72136100      -0.40207100       0.64493000       0.13048500       0.06512400      -0.04073900
H       -1.69838500      -1.72271000      -1.64870300       0.65493700       0.00556900       0.07705700       0.17951100
H       -0.72053600      -0.27164900      -1.85851900       0.70077200      -0.03921500      -0.11750000       0.18002800
50
Properties=species:S:1:pos:R:3:REF_hirsh_ratios:R:1:REF_forces:R:3 REF_dipole_total=1.36203 REF_energy=-32740.861752 REF_dipole="1.110705 0.756525 -0.221649" pbc="F F F"
C       -2.28424200      -3.41079800      -1.67719000       0.76242700      -0.15450500       0.03068500       0.20919000
H       -1.79137700      -3.54121400      -2.64456200       0.56523600       0.04074400       0.20263800       0.24676000
H       -3.35978700      -3.25376000      -1.82958500       0.61981000       0.23146200      -0.07836300       0.07511100
H       -2.13539900      -4.30364100      -1.06006300       0.61659900      -0.06506200       0.18268700      -0.12539100
O       -1.69888500      -2.26947200      -1.04603800       0.88793700      -0.27265100       0.21247600       0.80338800
C       -2.18453100      -2.00588000       0.20749500       0.85770100      -1.35830500      -0.81136400       0.69178500
O       -3.11556400      -2.66180800       0.70538300       0.94750800       1.86841300       1.33780800      -0.95817900
N       -1.58860200      -0.93755300       0.82797500       0.89195300       0.32603300      -0.07203100      -0.61146900
C       -1.97987100      -0.50771500       2.18469300       0.83919500      -0.19769000      -0.29497400       0.16348600
C       -1.08564200       0.68444400       2.41263100       0.81149900       0.29009600      -0.27135100      -0.82688000
C       -0.27554800       0.90041000       1.37327700       0.83093400      -0.48450800      -0.53101700       0.30290000
C       -0.50270200      -0.11584700       0.26460700       0.87612400       0.00301500      -0.12044300      -0.32057900
C        0.79296500      -0.98623900       0.05300800       0.85440400       0.55456800      -0.91437100       0.17370800
O        0.84948500      -2.16537600       0.40176100       0.95157700      -0.04603000       1.70767600      -0.44009200
N        1.86451000      -0.34119900      -0.52857700       0.85910600      -0.52611800      -0.23907200       0.44827100
H        1.86102200       0.67376100      -0.62421200       0.72879700       0.11152600      -0.52981000       0.08165300
C        3.17249900      -0.97810300      -0.58221400       0.80395600      -0.37408000       0.13173000      -0.06230600
C        4.29185200       0.02861500      -0.41632600       0.83575800       0.23867300       0.84899800       0.10572400
N        3.95894900       1.33487200      -0.30627400       0.89110500       0.79981900      -0.47123100      -0.04146200
C        4.95030300       2.23833300      -0.16530200       0.81120300      -0.02983000      -0.64295300      -0.06529300
C        6.30181800       1.88780100      -0.12845300       0.80576600      -0.35104600      -0.10531500      -0.02168200
C        6.64451200       0.54032000      -0.24359900       0.80206400      -0.45341100       0.03214000      -0.02447900
C        5.63016000      -0.40079200      -0.39041500       0.80669000      -0.21981600       0.33202100       0.01928600
H        5.86439900      -1.45861700      -0.48181400       0.59788000      -0.06275200       0.14515600       0.01090500
H        7.68614400       0.22883800      -0.21885600       0.58109200      -0.17773800       0.04682900      -0.00135700
H        7.06846900       2.64865500      -0.01225800       0.59006500      -0.15919000      -0.08435900      -0.01675900
H        4.65062600       3.28873700      -0.07789000       0.59905600       0.02970500      -0.41397200      -0.04366700
H        3.21782200      -1.75088000       0.20114600       0.66864000      -0.01410200       0.25670700      -0.14627700
H        3.30669600      -1.52073700      -1.53935900       0.61724200      -0.03636000       0.25685700       0.30715500
C       -0.92383200       0.58738600      -1.08781400       0.83177500      -0.07745900      -0.08020800       0.42722500
C       -2.23678300       1.32009500      -0.94448900       0.85893500       0.02736300       0.04409000       0.01235800
C       -2.26552500       2.64265100      -0.47979200       0.83248900      -0.37073000      -0.24953600      -0.14035600
C       -3.48072500       3.30432800      -0.30420100       0.81940600       0.01117300      -0.25588700      -0.08126500
C       -4.68163800       2.65054500      -0.58540100       0.81781000       0.26532400      -0.13558800      -0.02774000
C       -4.66168200       1.33379400      -1.04767100       0.81700000       0.25179100       0.13302100       0.06236800
C       -3.44722700       0.67143800      -1.22691400       0.83414200       0.04582300       0.42754800       0.11896500
H       -3.43620000      -0.35421300      -1.58812300       0.68894800       0.00975400       0.17631600       0.05337000
H       -5.59415200       0.81990000      -1.26698900       0.60499300       0.13662800       0.07463900       0.03024800
H       -5.62844300       3.16596300      -0.44563000       0.60556000       0.14167200      -0.07774700      -0.02468200
H       -3.49045200       4.33069800       0.05493500       0.60694500      -0.00575800      -0.15217300      -0.06029600
H       -1.33115300       3.15424000      -0.25706500       0.64828600      -0.15543400      -0.07964300      -0.04545200
H       -0.12769800       1.28527900      -1.37041000       0.67021900      -0.12458300      -0.05412600       0.05453500
H       -0.99230500      -0.17104200      -1.87258000       0.69449100       0.03938500       0.10634100       0.18070600
H        0.46305900       1.69222400       1.29416400       0.64426300      -0.07835100      -0.16999300      -0.04447300
H       -1.10272000       1.27142500       3.32465300       0.59386100      -0.08920300      -0.13165300      -0.10803800
C       -1.79177400      -1.62444000       3.22667800       0.78282700      -0.02116100       0.27978400      -0.25792200
H       -2.42440800      -2.47071000       2.97247500       0.66611700      -0.04381200       0.01847700      -0.00438000
H       -0.75739000      -1.95924100       3.24785900       0.65084200       0.12197600       0.02880900      -0.05462900
H       -2.06128800      -1.26656100       4.21827700       0.59634700      -0.05163400       0.08947800       0.07903500
H       -3.04878000      -0.20266800       2.19100000       0.67405700       0.45637300      -0.13573100      -0.10303000
50
Properties=species:S:1:pos:R:3:REF_hirsh_ratios:R:1:REF_forces:R:3 REF_dipole_total=1.361435 REF_energy=-32740.861698 REF_dipole="-1.096923 -0.806169 -0.018886" pbc="F F F"
C        2.34321000       2.69614000      -2.61427200       0.76240600       0.14644000       0.03691800       0.21416500
H        1.88856300       2.51875900      -3.59282500       0.56523500      -0.04946000      -0.11896200       0.29499700
H        3.42480100       2.51886200      -2.67265300       0.61978500      -0.23466800       0.09347100       0.03925700
H        2.16508000       3.73131500      -2.30305100       0.61658700       0.07095500      -0.21095600      -0.06156400
O        1.73935000       1.78984300      -1.68820800       0.88797100       0.24188600       0.04529500       0.83928700
C        2.17642500       1.92661100      -0.39712700       0.85774200       1.32585500       1.00551600       0.46162600
O        3.08359200       2.71825300      -0.08839200       0.94753500      -1.82202600      -1.59681300      -0.57398100
N        1.56209000       1.08644600       0.49628600       0.89194700      -0.30191300      -0.12248900      -0.61581100
C        1.90190700       1.09442400       1.93260600       0.83916300       0.18951200       0.33370600       0.07336100
C        1.00591300       0.01211800       2.47909000       0.81147900      -0.25878200       0.00335700      -0.87977400
C        0.23852200      -0.52222800       1.52581800       0.83094700       0.46927000       0.60559400       0.14492400
C        0.50359400       0.11436200       0.17008300       0.87614400       0.00888200       0.01782400      -0.34190000
C       -0.78743200       0.85752200      -0.34177800       0.85436600      -0.56503000       0.91457000      -0.13255900
O       -0.86358100       2.08573800      -0.37063700       0.95152000       0.07247600      -1.75947000       0.10300200
N       -1.83221400       0.04827300      -0.73702500       0.85913000       0.50572200       0.37320200       0.37269200
H       -1.81972600      -0.94728600      -0.51788700       0.72872200      -0.11692700       0.52837700      -0.08686500
C       -3.14083800       0.61663700      -1.02671100       0.80394100       0.37691200      -0.13986100      -0.00686500
C       -4.26014300      -0.30780100      -0.59471300       0.83581600      -0.23791400      -0.77863100       0.35493200
N       -3.92449800      -1.51106200      -0.07630100       0.89116200      -0.80084300       0.42228300      -0.21112500
C       -4.91548800      -2.34287400       0.30438700       0.81126500       0.02861300       0.59203100      -0.25954200
C       -6.26928600      -2.01976900       0.18751400       0.80577900       0.35118900       0.09927800      -0.04166700
C       -6.61474200      -0.77904500      -0.34883000       0.80210300       0.45428800      -0.03082400       0.00132700
C       -5.60076300       0.08715900      -0.74594100       0.80675000       0.22067700      -0.30643500       0.12787900
H       -5.83715500       1.06143000      -1.16681100       0.59792900       0.06304400      -0.13373800       0.05719200
H       -7.65821900      -0.49185200      -0.45515000       0.58113600       0.17788000      -0.04213700       0.01892900
H       -7.03558200      -2.71996400       0.50794300       0.59005100       0.15927000       0.07763200      -0.03682300
H       -4.61360200      -3.31026700       0.72129800       0.59906900      -0.03030600       0.37977700      -0.17024700
H       -3.21786000       1.59220700      -0.52158300       0.66884300       0.02061000      -0.28879200      -0.05922700
H       -3.24369400       0.83590400      -2.10835200       0.61707500       0.02669700      -0.14933400       0.37266800
C        0.98121600      -0.95806300      -0.88949200       0.83176700       0.05996000       0.20653400       0.38513500
C        2.29117100      -1.59096800      -0.48368000       0.85889200      -0.02729500      -0.03878000       0.02398200
C        2.30823400      -2.71037100       0.36045800       0.83248200       0.37484400       0.20163100      -0.19590900
C        3.51888500      -3.26748800       0.77192300       0.81937100      -0.00925800       0.21919200      -0.15526900
C        4.72664300      -2.70933200       0.34945000       0.81777500      -0.26485200       0.11640200      -0.07719100
C        4.71829100      -1.59458300      -0.49030700       0.81701800      -0.25344700      -0.11209000       0.09068300
C        3.50852500      -1.03791000      -0.90542900       0.83412500      -0.04843600      -0.37200100       0.24114900
H        3.50657800      -0.16987400      -1.56045800       0.68899000      -0.01097000      -0.15206600       0.10389000
H        5.65608000      -1.15553900      -0.82117900       0.60495000      -0.13729100      -0.06421600       0.04646700
H        5.66978500      -3.14239200       0.67282300       0.60553000      -0.14094400       0.06428900      -0.05216300
H        3.51961800      -4.13687000       1.42513300       0.60695800       0.00738000       0.12694100      -0.10324400
H        1.36839600      -3.14623300       0.69379100       0.64823600       0.15665500       0.06478400      -0.06174600
H        0.20033200      -1.72194800      -0.97574700       0.67023500       0.12206700       0.07037300       0.04000400
H        1.07671000      -0.47167800      -1.86420600       0.69455100      -0.04595600      -0.04728700       0.20288600
H       -0.49210700      -1.31332100       1.66411500       0.64451400       0.07901100       0.14995500      -0.09096400
H        0.99027100      -0.27077100       3.52616000       0.59383200       0.09265500       0.09434400      -0.13969400
C        1.66675300       2.47084800       2.57941200       0.78283700       0.03283900      -0.34427400      -0.16018000
H        2.30419800       3.21116100       2.10336900       0.66611200       0.04406600      -0.01807000       0.00295300
H        0.63049500       2.77848800       2.46100600       0.65086500      -0.11957800      -0.04600500      -0.04762200
H        1.89901400       2.43475200       3.64183100       0.59634600       0.04894700      -0.06036400       0.10422500
H        2.97138800       0.82402600       2.06950000       0.67406800      -0.45270400       0.09032000      -0.15567900
50
Properties=species:S:1:pos:R:3:REF_hirsh_ratios:R:1:REF_forces:R:3 REF_dipole_total=0.925844 REF_energy=-32740.675062 REF_dipole="-0.889948 -0.079745 0.242528" pbc="F F F"
C       -0.58592400      -0.78618000      -2.08978300       0.78633200       0.24223900      -0.07041700      -0.11607600
H       -0.33480600      -0.30731300      -3.04340700       0.62031300      -0.02350200      -0.12800600       0.19433300
H       -1.62523700      -0.57385200      -1.82566300       0.67275400       0.32639800       0.03659600       0.14878800
H       -0.43570300      -1.86888100      -2.17636500       0.67935800      -0.01926600       0.25398000       0.00011000
O        0.23356900      -0.26078800      -1.04047400       0.89291600       1.06365200      -0.04396300      -0.26865400
C        1.57902600      -0.44785000      -1.21262200       0.85545800       0.42173600      -0.76977000      -1.45489100
O        2.04665700      -0.97037700      -2.23759000       0.94513000      -0.82313300       1.01204300       2.08059400
N        2.34266100      -0.00778500      -0.15772100       0.88586600      -0.51650500       0.15727400       0.06197500
C        3.81960300       0.05844600      -0.24595000       0.83561600       0.05910000      -0.00019000      -0.33658900
C        4.18707400       0.74301800       1.04566800       0.81111400      -0.91551600      -0.03135100       0.04738600
C        3.11088400       1.02137700       1.78178100       0.82828700       0.09978600      -0.19794200      -0.70482300
C        1.83031000       0.50858200       1.13505200       0.87149700      -0.38840200      -0.24723200       0.14381300
C        0.82452200       1.70419000       0.90861600       0.85916600      -0.38535200       1.00376000      -0.06244300
O        1.24801200       2.83999600       0.67929500       0.96319300      -0.42511200      -1.56556900       0.26142700
N       -0.52348000       1.44565000       1.02727100       0.87171100       0.73268200       0.11263400      -0.14502600
H       -0.85438300       0.48257600       0.94144100       0.80608600       0.15639000       0.51459000      -0.03829200
C       -1.49105500       2.46101900       0.63313500       0.80838500       0.31472400      -0.21961700       0.17727300
C       -2.77579900       1.83787900       0.12997300       0.83428600      -0.48808100      -0.71408400      -0.13212000
N       -2.90040500       0.49353000       0.19963400       0.88288800      -0.59814400       0.75975700      -0.28211000
C       -4.04261600      -0.07073600      -0.24082400       0.81192400       0.22122600       0.62844000       0.05836900
C       -5.10397900       0.66957800      -0.76650300       0.80512800       0.33651700      -0.01571300       0.14745100
C       -4.97688300       2.05739700      -0.83765200       0.80206700       0.37685800      -0.16585700       0.18183200
C       -3.80225800       2.64973100      -0.38425600       0.80626800       0.08396200      -0.36846400       0.07183900
H       -3.67343700       3.72849600      -0.42846800       0.59835600       0.00974400      -0.15853200       0.01568000
H       -5.78150600       2.66748900      -1.24142800       0.58179900       0.14133700      -0.09782300       0.06515300
H       -6.00762900       0.17542000      -1.11212000       0.59056600       0.16247300       0.03393200       0.06647900
H       -4.11032800      -1.16277400      -0.17067300       0.63118000       0.11783700       0.40507200      -0.00273300
H       -1.71786700       3.13289100       1.48407500       0.62543400       0.03487600      -0.26783000      -0.27115600
H       -1.04354000       3.11020600      -0.13743700       0.67223600      -0.12622600      -0.22226800       0.15048800
C        1.23610700      -0.63738800       2.07604400       0.82499100       0.10648000       0.22956100      -0.44148500
C        0.43051100      -1.72804900       1.41075700       0.86087400      -0.13298300      -0.21096000       0.15571400
C       -0.95465500      -1.82686100       1.61192000       0.83797900       0.34397200      -0.28278900      -0.18401500
C       -1.69036000      -2.84072700       0.99755800       0.82283900       0.30481400       0.00588600      -0.07849000
C       -1.05239200      -3.77478000       0.18084000       0.81577500       0.09415400       0.23368300       0.16903400
C        0.32974900      -3.70227300      -0.00311900       0.81774200      -0.08996000       0.22518700       0.19279400
C        1.06796700      -2.69386100       0.61472200       0.83723300      -0.42555100      -0.03956200       0.15342800
H        2.14577600      -2.65224100       0.47656800       0.67518900      -0.17605100      -0.00566100       0.01771900
H        0.83529400      -4.43444200      -0.62721900       0.60638800      -0.06678600       0.10478500       0.09009400
H       -1.62719100      -4.56186700      -0.30065500       0.60272000       0.09127200       0.11088000       0.07277800
H       -2.76416400      -2.90006800       1.15967800       0.62701700       0.16921300      -0.00993600      -0.00678500
H       -1.46024200      -1.11227100       2.25865500       0.67600900       0.08751800      -0.10984700      -0.13095900
H        2.09135700      -1.09921800       2.58174600       0.66272500      -0.04589400       0.07561800      -0.15718900
H        0.64130000      -0.15178800       2.85638600       0.66531100       0.05464800      -0.02374100      -0.11676700
H        3.10766000       1.52488200       2.74212400       0.61972300      -0.09916600      -0.05969700      -0.14957500
H        5.20823200       1.00128500       1.30391500       0.59517100      -0.11501500      -0.12391300      -0.08742600
C        4.30075400       0.82245600      -1.49022800       0.78121900      -0.11887100      -0.20487600       0.27229900
H        3.90513200       1.83528200      -1.49401300       0.64193000      -0.06690300       0.09693500       0.09999600
H        5.38725900       0.87737100      -1.49632100       0.59467400       0.11547000      -0.02371200       0.05200500
H        3.96924100       0.31495000      -2.39208200       0.66694800       0.02566000      -0.03904300       0.01420700
H        4.24352700      -0.97041100      -0.28173600       0.65341200      -0.24832300       0.41775100       0.00454300
50
Properties=species:S:1:pos:R:3:REF_hirsh_ratios:R:1:REF_forces:R:3 REF_dipole_total=0.691735 REF_energy=-32740.949374 REF_dipole="-0.530832 -0.351151 0.270937" pbc="F F F"
C        1.51170500       0.25648000       0.96509300       0.75993900       0.06268500       0.25541300      -0.01676200
O        2.88456300       0.11299100       0.58613600       0.87958700       0.47122100       0.67448300      -0.12748900
C        3.53273100       1.28670400       0.35403700       0.85089600      -0.57437400       1.70255200       0.31455900
O        2.94063800       2.38879500       0.45438000       0.92067400       1.11597800      -2.19078400      -0.23609800
N        4.85462000       1.15075200       0.03998200       0.88503700      -0.34381600      -0.22251900       0.04415300
C        5.49249600      -0.15378600      -0.26240400       0.83625900      -0.09905600      -0.32774900      -0.00515000
H        5.48833500      -0.79420300       0.64593200       0.64619400       0.00241800       0.34850800      -0.36053500
C        4.79311300      -0.92066000      -1.40263900       0.79482300       0.14162100       0.23229000       0.27322000
C        6.89684800       0.25304100      -0.63512300       0.81188500      -0.47086900       0.77752100       0.11787900
C        7.04644000       1.57753900      -0.63928400       0.83498500      -0.43699900      -0.55884000       0.37806000
C        5.78434300       2.29673500      -0.20588200       0.87279800      -0.43791900       0.27633000       0.14548000
C        5.23010000       3.27202000      -1.31169300       0.82788400       0.05055200      -0.38554900       0.11002800
C        4.81403500       2.53362000      -2.56158700       0.85835000       0.00503500       0.01293100      -0.02436200
C        3.46437100       2.22172900      -2.77992900       0.83358500       0.33842400      -0.07389200      -0.31823800
C        3.08148400       1.50026300      -3.91134700       0.81667800       0.28497400       0.05863400       0.02685400
C        4.04007500       1.08085300      -4.83529100       0.81630200       0.07078000       0.14294500       0.24523100
C        5.38529800       1.39139200      -4.62663300       0.81695300      -0.18618300       0.08461100       0.18812500
C        5.77067700       2.11288000      -3.49689900       0.83125800      -0.43491900      -0.03063800      -0.05991900
C        6.09106300       3.12089800       1.10948000       0.85607900       0.62734000       0.44957600       0.64859900
O        7.25527000       3.25178900       1.50794500       0.96116700      -1.53828300      -0.29943700      -0.68967900
N        5.02906800       3.71405200       1.74167700       0.86626800       0.43770600      -0.27553700      -0.09175400
C        5.19177500       4.27922100       3.07505000       0.80390700      -0.08699400      -0.18026500      -0.46884000
C        4.32486800       3.56724400       4.09897400       0.83823700      -0.48105800      -0.71808300       0.19482500
C        4.14454200       4.11033200       5.38326400       0.80987200      -0.11214300      -0.30122500      -0.23466000
C        3.35171200       3.43155900       6.30408000       0.80579500       0.11529200      -0.10324100      -0.40937300
C        2.75523500       2.22975300       5.92212800       0.80924100       0.15049900       0.04196200      -0.29171100
C        2.98169400       1.75499000       4.62724700       0.81638800       0.37269300       0.60255200       0.02288400
N        3.74928500       2.40108000       3.72900600       0.89671100      -0.06858200       0.46053000       0.85789700
H        1.10841000      -0.74723400       1.12072000       0.56024400       0.28161400       0.10058400      -0.09361800
H        0.95022300       0.76473200       0.17290000       0.60985700       0.10066700      -0.07939400       0.20151700
H        1.43480700       0.83716500       1.89178300       0.64665100       0.00382700      -0.07697800      -0.23183900
H        3.78479500      -1.21235200      -1.12030100       0.66037400       0.02960900      -0.01169800       0.04675900